# vtk DataFile Version 2.0
Grille
ASCII
DATASET POLYDATA
POINTS 4761 float
0.000000E+00 0.000000E+00 0.000000E+00
5.882353E-02 0.000000E+00 0.000000E+00
1.176471E-01 0.000000E+00 0.000000E+00
1.764706E-01 0.000000E+00 0.000000E+00
2.352941E-01 0.000000E+00 0.000000E+00
2.941176E-01 0.000000E+00 0.000000E+00
3.529412E-01 0.000000E+00 0.000000E+00
4.117647E-01 0.000000E+00 0.000000E+00
4.705882E-01 0.000000E+00 0.000000E+00
5.294118E-01 0.000000E+00 0.000000E+00
5.882353E-01 0.000000E+00 0.000000E+00
6.470588E-01 0.000000E+00 0.000000E+00
7.058824E-01 0.000000E+00 0.000000E+00
7.647059E-01 0.000000E+00 0.000000E+00
8.235294E-01 0.000000E+00 0.000000E+00
8.823529E-01 0.000000E+00 0.000000E+00
9.411765E-01 0.000000E+00 0.000000E+00
1.000000E+00 0.000000E+00 0.000000E+00
0.000000E+00 5.882353E-02 0.000000E+00
5.882353E-02 5.882353E-02 3.674180E-03
1.176471E-01 6.240551E-02 7.699709E-03
1.764706E-01 5.882353E-02 1.135267E-02
2.352941E-01 7.119092E-02 1.758750E-02
2.941176E-01 5.882353E-02 1.981422E-02
3.529412E-01 8.531439E-02 3.140654E-02
4.117647E-01 5.882353E-02 2.930329E-02
4.705882E-01 1.001860E-01 4.971273E-02
5.294118E-01 5.882353E-02 3.966034E-02
5.882353E-01 1.076572E-01 6.895421E-02
6.470588E-01 5.882353E-02 4.926185E-02
7.058824E-01 1.019441E-01 7.836009E-02
7.647059E-01 5.882353E-02 5.657246E-02
8.235294E-01 8.518406E-02 7.645920E-02
8.823529E-01 5.882353E-02 6.170010E-02
9.411765E-01 6.624803E-02 6.919566E-02
1.000000E+00 5.882353E-02 0.000000E+00
0.000000E+00 1.176471E-01 0.000000E+00
5.882353E-02 1.176471E-01 7.373222E-03
1.176471E-01 1.246890E-01 1.490669E-02
1.764706E-01 1.176471E-01 2.156889E-02
2.352941E-01 1.419607E-01 3.374964E-02
2.941176E-01 1.176471E-01 3.737509E-02
3.529412E-01 1.697267E-01 6.108535E-02
4.117647E-01 1.176471E-01 5.600912E-02
4.705882E-01 1.989635E-01 1.028033E-01
5.294118E-01 1.176471E-01 7.732078E-02
5.882353E-01 2.136514E-01 1.459818E-01
6.470588E-01 1.176471E-01 9.751249E-02
7.058824E-01 2.024198E-01 1.695659E-01
7.647059E-01 1.176471E-01 1.090404E-01
8.235294E-01 1.694704E-01 1.528904E-01
8.823529E-01 1.176471E-01 1.160699E-01
9.411765E-01 1.322432E-01 1.331220E-01
1.000000E+00 1.176471E-01 0.000000E+00
0.000000E+00 1.764706E-01 0.000000E+00
5.882353E-02 1.764706E-01 1.122649E-02
1.176471E-01 1.867328E-01 2.242119E-02
1.764706E-01 1.764706E-01 3.203007E-02
2.352941E-01 2.119025E-01 5.002183E-02
2.941176E-01 1.764706E-01 5.532963E-02
3.529412E-01 2.523654E-01 9.188206E-02
4.117647E-01 1.764706E-01 8.275313E-02
4.705882E-01 2.949718E-01 1.492636E-01
5.294118E-01 1.764706E-01 1.155911E-01
5.882353E-01 3.163762E-01 2.100146E-01
6.470588E-01 1.764706E-01 1.473203E-01
7.058824E-01 3.000086E-01 2.476350E-01
7.647059E-01 1.764706E-01 1.677152E-01
8.235294E-01 2.519920E-01 2.392580E-01
8.823529E-01 1.764706E-01 1.743213E-01
9.411765E-01 1.977414E-01 1.986988E-01
1.000000E+00 1.764706E-01 0.000000E+00
0.000000E+00 2.352941E-01 0.000000E+00
5.882353E-02 2.352941E-01 1.510938E-02
1.176471E-01 2.484270E-01 3.004410E-02
1.764706E-01 2.352941E-01 4.273183E-02
2.352941E-01 2.806377E-01 6.626815E-02
2.941176E-01 2.352941E-01 7.316654E-02
3.529412E-01 3.324197E-01 1.196864E-01
4.117647E-01 2.352941E-01 1.095524E-01
4.705882E-01 3.869447E-01 1.910350E-01
5.294118E-01 2.352941E-01 1.524132E-01
5.882353E-01 4.143368E-01 2.645890E-01
6.470588E-01 2.352941E-01 1.946987E-01
7.058824E-01 3.933905E-01 3.133737E-01
7.647059E-01 2.352941E-01 2.246067E-01
8.235294E-01 3.319418E-01 3.140586E-01
8.823529E-01 2.352941E-01 2.364889E-01
9.411765E-01 2.625152E-01 2.676318E-01
1.000000E+00 2.352941E-01 0.000000E+00
0.000000E+00 2.941176E-01 0.000000E+00
5.882353E-02 2.941176E-01 1.899310E-02
1.176471E-01 3.096740E-01 3.764891E-02
1.764706E-01 2.941176E-01 5.355394E-02
2.352941E-01 3.478288E-01 8.229219E-02
2.941176E-01 2.941176E-01 9.104604E-02
3.529412E-01 4.091665E-01 1.458898E-01
4.117647E-01 2.941176E-01 1.355049E-01
4.705882E-01 4.737534E-01 2.281571E-01
5.294118E-01 2.941176E-01 1.869465E-01
5.882353E-01 5.062003E-01 3.108902E-01
6.470588E-01 2.941176E-01 2.382920E-01
7.058824E-01 4.813886E-01 3.682996E-01
7.647059E-01 2.941176E-01 2.776173E-01
8.235294E-01 4.086004E-01 3.789983E-01
8.823529E-01 2.941176E-01 2.981289E-01
9.411765E-01 3.263620E-01 3.373037E-01
1.000000E+00 2.941176E-01 0.000000E+00
0.000000E+00 3.529412E-01 0.000000E+00
5.882353E-02 3.529412E-01 2.287248E-02
1.176471E-01 3.703913E-01 4.518834E-02
1.764706E-01 3.529412E-01 6.442822E-02
2.352941E-01 4.131908E-01 9.808715E-02
2.941176E-01 3.529412E-01 1.088753E-01
3.529412E-01 4.819954E-01 1.704026E-01
4.117647E-01 3.529412E-01 1.604726E-01
4.705882E-01 5.544447E-01 2.610006E-01
5.294118E-01 3.529412E-01 2.191425E-01
5.882353E-01 5.908415E-01 3.502132E-01
6.470588E-01 3.529412E-01 2.780588E-01
7.058824E-01 5.630095E-01 4.143383E-01
7.647059E-01 3.529412E-01 3.261325E-01
8.235294E-01 4.813604E-01 4.349603E-01
8.823529E-01 3.529412E-01 3.567097E-01
9.411765E-01 3.891108E-01 4.039034E-01
1.000000E+00 3.529412E-01 0.000000E+00
0.000000E+00 4.117647E-01 0.000000E+00
5.882353E-02 4.117647E-01 2.674634E-02
1.176471E-01 4.305144E-01 5.264619E-02
1.764706E-01 4.117647E-01 7.523133E-02
2.352941E-01 4.765011E-01 1.131270E-01
2.941176E-01 4.117647E-01 1.266012E-01
3.529412E-01 5.504295E-01 1.931283E-01
4.117647E-01 4.117647E-01 1.845168E-01
4.705882E-01 6.282741E-01 2.899784E-01
5.294118E-01 4.117647E-01 2.491811E-01
5.882353E-01 6.673814E-01 3.836684E-01
6.470588E-01 4.117647E-01 3.143582E-01
7.058824E-01 6.374767E-01 4.531469E-01
7.647059E-01 4.117647E-01 3.703720E-01
8.235294E-01 5.497473E-01 4.833190E-01
8.823529E-01 4.117647E-01 4.114563E-01
9.411765E-01 4.506278E-01 4.657219E-01
1.000000E+00 4.117647E-01 0.000000E+00
0.000000E+00 4.705882E-01 0.000000E+00
5.882353E-02 4.705882E-01 3.061420E-02
1.176471E-01 4.899989E-01 6.001601E-02
1.764706E-01 4.705882E-01 8.598467E-02
2.352941E-01 5.376068E-01 1.275427E-01
2.941176E-01 4.705882E-01 1.440992E-01
3.529412E-01 6.141416E-01 2.140768E-01
4.117647E-01 4.705882E-01 2.077269E-01
4.705882E-01 6.947305E-01 3.154981E-01
5.294118E-01 4.705882E-01 2.773246E-01
5.882353E-01 7.352165E-01 4.121642E-01
6.470588E-01 4.705882E-01 3.476632E-01
7.058824E-01 7.042575E-01 4.860492E-01
7.647059E-01 4.705882E-01 4.108439E-01
8.235294E-01 6.134353E-01 5.254109E-01
8.823529E-01 4.705882E-01 4.624046E-01
9.411765E-01 5.108214E-01 5.225587E-01
1.000000E+00 4.705882E-01 0.000000E+00
0.000000E+00 5.294118E-01 0.000000E+00
5.882353E-02 5.294118E-01 3.447593E-02
1.176471E-01 5.488224E-01 6.729587E-02
1.764706E-01 5.294118E-01 9.668888E-02
2.352941E-01 5.964304E-01 1.413974E-01
2.941176E-01 5.294118E-01 1.613239E-01
3.529412E-01 6.729651E-01 2.333672E-01
4.117647E-01 5.294118E-01 2.302106E-01
4.705882E-01 7.535541E-01 3.379558E-01
5.294118E-01 5.294118E-01 3.038673E-01
5.882353E-01 7.940400E-01 4.364470E-01
6.470588E-01 5.294118E-01 3.784636E-01
7.058824E-01 7.630810E-01 5.140989E-01
7.647059E-01 5.294118E-01 4.481351E-01
8.235294E-01 6.722588E-01 5.623988E-01
8.823529E-01 5.294118E-01 5.099383E-01
9.411765E-01 5.696450E-01 5.748513E-01
1.000000E+00 5.294118E-01 0.000000E+00
0.000000E+00 5.882353E-01 0.000000E+00
5.882353E-02 5.882353E-01 3.833167E-02
1.176471E-01 6.069849E-01 7.448731E-02
1.764706E-01 5.882353E-01 1.073468E-01
2.352941E-01 6.529717E-01 1.547290E-01
2.941176E-01 5.882353E-01 1.783200E-01
3.529412E-01 7.269001E-01 2.511715E-01
4.117647E-01 5.882353E-01 2.521028E-01
4.705882E-01 8.047447E-01 3.577366E-01
5.294118E-01 5.882353E-01 3.291188E-01
5.882353E-01 8.438520E-01 4.571484E-01
6.470588E-01 5.882353E-01 4.072375E-01
7.058824E-01 8.139472E-01 5.381551E-01
7.647059E-01 5.882353E-01 4.828364E-01
8.235294E-01 7.262179E-01 5.952706E-01
8.823529E-01 5.882353E-01 5.545822E-01
9.411765E-01 6.270984E-01 6.232522E-01
1.000000E+00 5.882353E-01 0.000000E+00
0.000000E+00 6.470588E-01 0.000000E+00
5.882353E-02 6.470588E-01 4.218186E-02
1.176471E-01 6.645090E-01 8.159507E-02
1.764706E-01 6.470588E-01 1.179656E-01
2.352941E-01 7.073084E-01 1.676065E-01
2.941176E-01 6.470588E-01 1.951577E-01
3.529412E-01 7.761130E-01 2.676914E-01
4.117647E-01 6.470588E-01 2.735704E-01
4.705882E-01 8.485624E-01 3.752218E-01
5.294118E-01 6.470588E-01 3.534025E-01
5.882353E-01 8.849592E-01 4.748277E-01
6.470588E-01 6.470588E-01 4.344495E-01
7.058824E-01 8.571271E-01 5.589477E-01
7.647059E-01 6.470588E-01 5.155246E-01
8.235294E-01 7.754781E-01 6.248735E-01
8.823529E-01 6.470588E-01 5.969142E-01
9.411765E-01 6.832284E-01 6.684578E-01
1.000000E+00 6.470588E-01 0.000000E+00
0.000000E+00 7.058824E-01 0.000000E+00
5.882353E-02 7.058824E-01 4.602717E-02
1.176471E-01 7.214387E-01 8.862675E-02
1.764706E-01 7.058824E-01 1.285877E-01
2.352941E-01 7.595935E-01 1.803458E-01
2.941176E-01 7.058824E-01 2.119449E-01
3.529412E-01 8.209312E-01 2.831413E-01
4.117647E-01 7.058824E-01 2.948145E-01
4.705882E-01 8.855181E-01 3.908012E-01
5.294118E-01 7.058824E-01 3.770664E-01
5.882353E-01 9.179650E-01 4.900096E-01
6.470588E-01 7.058824E-01 4.605666E-01
7.058824E-01 8.931533E-01 5.771319E-01
7.647059E-01 7.058824E-01 5.467730E-01
8.235294E-01 8.203651E-01 6.519534E-01
8.823529E-01 7.058824E-01 6.375361E-01
9.411765E-01 7.381267E-01 7.111491E-01
1.000000E+00 7.058824E-01 0.000000E+00
0.000000E+00 7.647059E-01 0.000000E+00
5.882353E-02 7.647059E-01 4.986848E-02
1.176471E-01 7.778388E-01 9.559249E-02
1.764706E-01 7.647059E-01 1.391575E-01
2.352941E-01 8.100495E-01 1.925179E-01
2.941176E-01 7.647059E-01 2.287869E-01
3.529412E-01 8.618315E-01 2.977247E-01
4.117647E-01 7.647059E-01 3.160760E-01
4.705882E-01 9.163565E-01 4.048895E-01
5.294118E-01 7.647059E-01 4.005060E-01
5.882353E-01 9.437486E-01 5.032208E-01
6.470588E-01 7.647059E-01 4.860872E-01
7.058824E-01 9.228023E-01 5.933366E-01
7.647059E-01 7.647059E-01 5.771844E-01
8.235294E-01 8.613536E-01 6.771884E-01
8.823529E-01 7.647059E-01 6.770787E-01
9.411765E-01 7.919269E-01 7.519806E-01
1.000000E+00 7.647059E-01 0.000000E+00
0.000000E+00 8.235294E-01 0.000000E+00
5.882353E-02 8.235294E-01 5.370682E-02
[...]
CELL_DATA 4624
SCALARS sol float 1
LOOKUP_TABLE default
1.077368E-04
2.693434E-04
2.693434E-04
5.929558E-04
4.576884E-04
4.576884E-04
9.567761E-04
9.567761E-04
6.593049E-04
6.593049E-04
1.496369E-03
1.347141E-03
1.347141E-03
8.675087E-04
8.721504E-04
2.069243E-03
2.069243E-03
1.769381E-03
1.753951E-03
1.078982E-03
1.095714E-03
2.696517E-03
2.824872E-03
2.666798E-03
2.212896E-03
2.170546E-03
1.292079E-03
1.327762E-03
3.355994E-03
3.655635E-03
3.609392E-03
3.281460E-03
2.674376E-03
2.592804E-03
1.505980E-03
1.567209E-03
4.528313E-03
4.043595E-03
4.645131E-03
4.416744E-03
3.907424E-03
3.151676E-03
3.018272E-03
1.720282E-03
1.798079E-03
5.730049E-03
5.439000E-03
4.756283E-03
5.661305E-03
5.241039E-03
4.540592E-03
3.590454E-03
3.445532E-03
1.934782E-03
2.011420E-03
6.960191E-03
6.861398E-03
6.384315E-03
5.390262E-03
6.699302E-03
6.077317E-03
5.178224E-03
4.010904E-03
3.873780E-03
2.149381E-03
2.212475E-03
8.312240E-03
8.215506E-03
8.036209E-03
7.205337E-03
6.008396E-03
7.754137E-03
6.921761E-03
5.818563E-03
4.412698E-03
4.302567E-03
2.364028E-03
2.403983E-03
9.715476E-03
9.790008E-03
9.491788E-03
9.038058E-03
8.012506E-03
6.606029E-03
8.820561E-03
7.771600E-03
6.460512E-03
4.797024E-03
4.731646E-03
2.578700E-03
2.637163E-03
1.089460E-02
1.142207E-02
1.129174E-02
1.078270E-02
1.002731E-02
8.799276E-03
7.181357E-03
9.895474E-03
8.624917E-03
7.103406E-03
5.337726E-03
5.160882E-03
2.793384E-03
2.938145E-03
1.206054E-02
1.277619E-02
1.315439E-02
1.281021E-02
1.208564E-02
1.099694E-02
9.561390E-03
8.066924E-03
1.097625E-02
9.480429E-03
7.746847E-03
5.955420E-03
5.590202E-03
3.008074E-03
3.282085E-03
1.320696E-02
1.411503E-02
1.468263E-02
1.490432E-02
1.434423E-02
1.339737E-02
1.194125E-02
1.080841E-02
9.028350E-03
1.206095E-02
1.033730E-02
8.390601E-03
6.642079E-03
6.019566E-03
3.222767E-03
3.657529E-03
1.543335E-02
1.432774E-02
1.619207E-02
1.660676E-02
1.667291E-02
1.589024E-02
1.471530E-02
1.355398E-02
1.213565E-02
1.007120E-02
1.314665E-02
1.119501E-02
9.034532E-03
7.388769E-03
6.448954E-03
3.437461E-03
3.967720E-03
1.672540E-02
1.767875E-02
1.630421E-02
1.828646E-02
1.855227E-02
1.845664E-02
1.744516E-02
1.603406E-02
1.525751E-02
1.355301E-02
1.119428E-02
1.423377E-02
1.205321E-02
9.678563E-03
7.853394E-03
6.878355E-03
3.652156E-03
4.161474E-03
1.906316E-02
1.913771E-02
1.994052E-02
1.838981E-02
2.040283E-02
2.051578E-02
2.025218E-02
1.900071E-02
1.735513E-02
1.706103E-02
1.506490E-02
1.174243E-02
1.532181E-02
1.291171E-02
1.032265E-02
8.206575E-03
7.307762E-03
3.866851E-03
4.278385E-03
2.153204E-02
2.183487E-02
2.156492E-02
2.222330E-02
2.059027E-02
2.253887E-02
2.249403E-02
2.204799E-02
2.055995E-02
1.867777E-02
1.897102E-02
1.566598E-02
1.220233E-02
1.641043E-02
1.377039E-02
1.096677E-02
8.450799E-03
7.737173E-03
4.081547E-03
4.341558E-03
2.413482E-02
2.468644E-02
2.461614E-02
2.401097E-02
2.452607E-02
2.291108E-02
2.469188E-02
2.447524E-02
2.384927E-02
2.212170E-02
2.000143E-02
1.961218E-02
1.619295E-02
1.255111E-02
1.749690E-02
1.462917E-02
1.161090E-02
8.598872E-03
8.166585E-03
4.296242E-03
4.556480E-03
2.769347E-02
2.687507E-02
2.784274E-02
2.741199E-02
2.647604E-02
2.684703E-02
2.359734E-02
2.685148E-02
2.646590E-02
2.565440E-02
2.368515E-02
2.132054E-02
2.018404E-02
1.661562E-02
1.278248E-02
1.858360E-02
1.548801E-02
1.225505E-02
9.353348E-03
8.595998E-03
4.510938E-03
5.024480E-03
3.085784E-02
3.124546E-02
2.761249E-02
3.101107E-02
3.022613E-02
2.895938E-02
2.917840E-02
2.420384E-02
2.902338E-02
2.846323E-02
2.746218E-02
2.524135E-02
2.263972E-02
2.065817E-02
1.691430E-02
1.424331E-02
1.967043E-02
1.634688E-02
1.289920E-02
1.035401E-02
9.025412E-03
4.725634E-03
5.628250E-03
3.165103E-02
3.482537E-02
3.480813E-02
2.825158E-02
3.419624E-02
3.305954E-02
3.145676E-02
3.152422E-02
2.471095E-02
3.120478E-02
3.046528E-02
2.925962E-02
2.679753E-02
2.395900E-02
2.100903E-02
1.915165E-02
1.589808E-02
2.075734E-02
1.720578E-02
1.354335E-02
1.155425E-02
9.454826E-03
4.940329E-03
6.317811E-03
3.232388E-02
3.567122E-02
3.880347E-02
3.838620E-02
2.878151E-02
3.740083E-02
3.589934E-02
3.397000E-02
3.388196E-02
2.509470E-02
3.339332E-02
3.245914E-02
3.105714E-02
2.835375E-02
2.527837E-02
2.403849E-02
2.155981E-02
1.775793E-02
2.184070E-02
1.806468E-02
1.418750E-02
1.291328E-02
9.884240E-03
5.155025E-03
6.812747E-03
3.638290E-02
3.287200E-02
3.971244E-02
4.279598E-02
4.198327E-02
2.918360E-02
4.060163E-02
3.875184E-02
3.649703E-02
3.624925E-02
2.890318E-02
3.557746E-02
3.445553E-02
3.285473E-02
2.991004E-02
2.659066E-02
2.724858E-02
2.416650E-02
1.981307E-02
2.292446E-02
1.892359E-02
1.483166E-02
1.337395E-02
1.031365E-02
5.369721E-03
6.968912E-03
4.046527E-02
3.695590E-02
3.328282E-02
4.377093E-02
4.680687E-02
4.556386E-02
3.376124E-02
4.381294E-02
4.161851E-02
3.903568E-02
3.861711E-02
3.293293E-02
3.776614E-02
3.645331E-02
3.465239E-02
3.145529E-02
2.790300E-02
3.066313E-02
2.698216E-02
2.000555E-02
2.400840E-02
1.978251E-02
1.547581E-02
1.354385E-02
1.074307E-02
5.584417E-03
6.885748E-03
4.106179E-02
4.456740E-02
3.738088E-02
3.862526E-02
4.784647E-02
5.078619E-02
4.915327E-02
3.861057E-02
4.703808E-02
4.449813E-02
4.158068E-02
4.099150E-02
3.719673E-02
3.995786E-02
3.845185E-02
3.643439E-02
3.300006E-02
2.921548E-02
3.429777E-02
2.680411E-02
2.000268E-02
2.509242E-02
2.064142E-02
1.611997E-02
1.340482E-02
1.117248E-02
5.799112E-03
6.630523E-03
4.149658E-02
4.518782E-02
4.868735E-02
4.346815E-02
4.429092E-02
5.188167E-02
5.477284E-02
5.275577E-02
4.373808E-02
5.027707E-02
4.736888E-02
4.413421E-02
4.337075E-02
4.170566E-02
4.215156E-02
4.043697E-02
3.821543E-02
3.454472E-02
3.052805E-02
3.371089E-02
2.649645E-02
1.971763E-02
2.617173E-02
2.150034E-02
1.676412E-02
1.297794E-02
1.160190E-02
6.013808E-03
6.706837E-03
4.873038E-02
4.563017E-02
4.933220E-02
5.277289E-02
4.992921E-02
5.028402E-02
5.593774E-02
5.877162E-02
5.637261E-02
4.914989E-02
5.349083E-02
5.024553E-02
4.669449E-02
4.575350E-02
4.074662E-02
4.433531E-02
4.242232E-02
3.999598E-02
3.608938E-02
3.183151E-02
3.303059E-02
2.595810E-02
1.910755E-02
2.725192E-02
2.235926E-02
1.740828E-02
1.399860E-02
1.203131E-02
6.228504E-03
7.382079E-03
5.640235E-02
5.365555E-02
4.978110E-02
5.345547E-02
5.688014E-02
5.676694E-02
5.660821E-02
6.001038E-02
6.278486E-02
5.994637E-02
4.785893E-02
5.670703E-02
5.312910E-02
4.925998E-02
4.813104E-02
3.967275E-02
4.652034E-02
4.440759E-02
4.177634E-02
3.762020E-02
3.313556E-02
3.216659E-02
2.510623E-02
2.151092E-02
2.833247E-02
2.321817E-02
1.805243E-02
1.553222E-02
1.246073E-02
6.443199E-03
8.344947E-03
6.216348E-02
6.451385E-02
5.851471E-02
5.392759E-02
5.759895E-02
6.100629E-02
6.398371E-02
5.501445E-02
6.409817E-02
6.673542E-02
6.351859E-02
4.640063E-02
5.992963E-02
5.601844E-02
5.182617E-02
5.051101E-02
3.843000E-02
4.870604E-02
4.639273E-02
4.353745E-02
3.915095E-02
3.444007E-02
3.102194E-02
2.905742E-02
2.423988E-02
2.941317E-02
2.407709E-02
1.869659E-02
1.745324E-02
1.289014E-02
6.657895E-03
9.472657E-03
7.115494E-02
6.776680E-02
7.306595E-02
6.330681E-02
5.809262E-02
6.176141E-02
6.514921E-02
6.207513E-02
5.318966E-02
6.812079E-02
7.068012E-02
6.709602E-02
4.475682E-02
6.315836E-02
5.888305E-02
5.439611E-02
5.289260E-02
3.693331E-02
5.089204E-02
4.836197E-02
4.529777E-02
4.068194E-02
3.574484E-02
3.654077E-02
3.324729E-02
2.731203E-02
3.048808E-02
2.493601E-02
1.934074E-02
1.966532E-02
1.331955E-02
6.872591E-03
1.023155E-02
7.754221E-02
8.063093E-02
7.326441E-02
6.987583E-02
6.814435E-02
6.227569E-02
6.594132E-02
6.923950E-02
5.990923E-02
5.114119E-02
7.215732E-02
7.462828E-02
7.067972E-02
4.286760E-02
6.633660E-02
6.175272E-02
5.696882E-02
5.527521E-02
4.428610E-02
5.306592E-02
5.033072E-02
4.705792E-02
4.221320E-02
3.703868E-02
4.231178E-02
3.772556E-02
3.070647E-02
3.156442E-02
2.579493E-02
1.998490E-02
2.002446E-02
1.374897E-02
7.087287E-03
1.035406E-02
8.379730E-02
8.784357E-02
7.746690E-02
7.880637E-02
6.695297E-02
7.298765E-02
6.647592E-02
7.008813E-02
7.334753E-02
5.748839E-02
4.883620E-02
7.620337E-02
7.858253E-02
7.418655E-02
5.265817E-02
6.951826E-02
6.462545E-02
5.954350E-02
5.765039E-02
5.197244E-02
5.523996E-02
5.229913E-02
4.881814E-02
4.372819E-02
3.833378E-02
4.837111E-02
4.251185E-02
3.014430E-02
3.264134E-02
2.665385E-02
2.062905E-02
1.989074E-02
1.417838E-02
7.301982E-03
9.990986E-03
9.007504E-02
9.490325E-02
8.480576E-02
7.409580E-02
8.433411E-02
6.398735E-02
7.781311E-02
7.066624E-02
7.425292E-02
7.746971E-02
5.479332E-02
6.010715E-02
8.025737E-02
8.243267E-02
7.769266E-02
6.287575E-02
7.270313E-02
6.756750E-02
6.211661E-02
6.002648E-02
6.001169E-02
5.741394E-02
5.426738E-02
5.055617E-02
4.524376E-02
3.962974E-02
5.474188E-02
4.078223E-02
2.931776E-02
3.371849E-02
2.751276E-02
2.127321E-02
1.918278E-02
1.460780E-02
7.516678E-03
9.257934E-03
1.019487E-01
9.631603E-02
9.181326E-02
8.120105E-02
7.060886E-02
8.981296E-02
6.082686E-02
8.257151E-02
7.487410E-02
7.843375E-02
8.160336E-02
6.748367E-02
7.187188E-02
8.421702E-02
8.627582E-02
8.120178E-02
7.353462E-02
7.602771E-02
7.039087E-02
6.469142E-02
6.240305E-02
6.841748E-02
5.958782E-02
5.621839E-02
5.229396E-02
4.676006E-02
4.092618E-02
5.176032E-02
3.896012E-02
2.802648E-02
3.478891E-02
2.837168E-02
2.191736E-02
1.789794E-02
1.503721E-02
7.731374E-03
9.015577E-03
9.876577E-02
1.089347E-01
1.024835E-01
8.806144E-02
7.728853E-02
6.694747E-02
9.520321E-02
7.496766E-02
8.737107E-02
7.909844E-02
8.262850E-02
8.566384E-02
8.076156E-02
8.414573E-02
8.818325E-02
9.012133E-02
8.492403E-02
8.464411E-02
7.911293E-02
7.323870E-02
6.726740E-02
6.477984E-02
6.363930E-02
6.174886E-02
5.816857E-02
5.403209E-02
4.827694E-02
4.221014E-02
4.879466E-02
3.682938E-02
2.613406E-02
3.586131E-02
2.923060E-02
2.256152E-02
1.900169E-02
1.546663E-02
7.946069E-03
9.796067E-03
9.487310E-02
1.056646E-01
1.158269E-01
1.085511E-01
8.385011E-02
7.313979E-02
8.249237E-02
1.006081E-01
8.972215E-02
9.216552E-02
8.333787E-02
8.677689E-02
8.973493E-02
9.461916E-02
9.693616E-02
9.215439E-02
9.425637E-02
8.828265E-02
7.707167E-02
8.224195E-02
7.608723E-02
6.984412E-02
6.714873E-02
5.917738E-02
6.390957E-02
6.011842E-02
5.577071E-02
4.977562E-02
4.349606E-02
4.566079E-02
3.417790E-02
2.934172E-02
3.693450E-02
3.008952E-02
2.320567E-02
2.090546E-02
1.589604E-02
8.160765E-03
1.103771E-02
9.040643E-02
1.016369E-01
1.124985E-01
1.226091E-01
1.145782E-01
7.930879E-02
8.998940E-02
9.865642E-02
1.059815E-01
1.050844E-01
9.693111E-02
8.756086E-02
9.093792E-02
9.381435E-02
1.090529E-01
8.955964E-02
9.623157E-02
9.789992E-02
9.170100E-02
7.047760E-02
8.537052E-02
7.893077E-02
7.241889E-02
6.951795E-02
5.477986E-02
6.606996E-02
6.206829E-02
5.748485E-02
5.127557E-02
4.478324E-02
4.212708E-02
3.974501E-02
3.297562E-02
3.800799E-02
3.094844E-02
2.384983E-02
2.338869E-02
1.632545E-02
8.375461E-03
1.252696E-02
8.550726E-02
9.694406E-02
1.083498E-01
1.190803E-01
1.292789E-01
1.205498E-01
9.736899E-02
1.074829E-01
1.154503E-01
1.112961E-01
1.210547E-01
1.016260E-01
9.179795E-02
9.510981E-02
9.793611E-02
1.013117E-01
8.185610E-02
1.001315E-01
1.016157E-01
9.511683E-02
6.440442E-02
8.848411E-02
8.171333E-02
7.499463E-02
7.188722E-02
5.016782E-02
6.823018E-02
6.400035E-02
5.919942E-02
5.277677E-02
4.607109E-02
5.038677E-02
4.556802E-02
3.706133E-02
3.907408E-02
3.180736E-02
2.449398E-02
2.629002E-02
1.675487E-02
8.590156E-03
1.350294E-02
1.047563E-01
9.171890E-02
1.034538E-01
1.148128E-01
1.256529E-01
1.358724E-01
1.264429E-01
1.161417E-01
1.256390E-01
1.328824E-01
1.165264E-01
1.128382E-01
1.063582E-01
9.604771E-02
9.930314E-02
1.019701E-01
9.283962E-02
7.432348E-02
1.040225E-01
1.053259E-01
9.850449E-02
5.844002E-02
9.148508E-02
8.453322E-02
7.757094E-02
7.425644E-02
6.254458E-02
7.037760E-02
6.593130E-02
6.091489E-02
5.427887E-02
4.734540E-02
5.891599E-02
5.171830E-02
4.156707E-02
4.014260E-02
3.266627E-02
2.513814E-02
2.647059E-02
1.718428E-02
8.804852E-03
1.358822E-02
1.246906E-01
1.120759E-01
9.793081E-02
1.097774E-01
1.212634E-01
1.321955E-01
1.423723E-01
1.322449E-01
1.356120E-01
1.444670E-01
1.241759E-01
1.217511E-01
1.036913E-01
1.110779E-01
1.003128E-01
1.034471E-01
1.060068E-01
8.416047E-02
6.694116E-02
1.079059E-01
1.089922E-01
1.017341E-01
7.325569E-02
9.455304E-02
8.735277E-02
8.014755E-02
7.661806E-02
7.529607E-02
7.252435E-02
6.786200E-02
6.263127E-02
5.576149E-02
4.862229E-02
6.776187E-02
5.822509E-02
4.012176E-02
4.121209E-02
3.352519E-02
2.578229E-02
2.601041E-02
1.761370E-02
9.019548E-03
1.297255E-02
1.330988E-01
1.453225E-01
1.192838E-01
1.040489E-01
1.160842E-01
1.276968E-01
1.386896E-01
1.487721E-01
1.379665E-01
1.557830E-01
1.353195E-01
1.144018E-01
1.269355E-01
9.402361E-02
1.157639E-01
1.045605E-01
1.076034E-01
1.100425E-01
7.550169E-02
8.410906E-02
1.117695E-01
1.124602E-01
1.050538E-01
8.848514E-02
9.761839E-02
9.016494E-02
8.272263E-02
7.897971E-02
8.844518E-02
7.467061E-02
6.979295E-02
6.432179E-02
5.724603E-02
4.990076E-02
7.695357E-02
5.473689E-02
3.841400E-02
4.228196E-02
3.438411E-02
2.642645E-02
2.476570E-02
1.804311E-02
9.234244E-03
1.180939E-02
1.548328E-01
1.413341E-01
1.666710E-01
1.263282E-01
1.101595E-01
1.223746E-01
1.341044E-01
1.449055E-01
1.550009E-01
1.436250E-01
1.459652E-01
1.249640E-01
1.038561E-01
1.320573E-01
8.417089E-02
1.203782E-01
1.088232E-01
1.117673E-01
1.140711E-01
9.488093E-02
1.017067E-01
1.154789E-01
1.160353E-01
1.083672E-01
1.041507E-01
1.006636E-01
9.291490E-02
8.529836E-02
8.134116E-02
1.020065E-01
7.681670E-02
7.170622E-02
6.601339E-02
5.873227E-02
5.118010E-02
7.062992E-02
5.128939E-02
3.613570E-02
4.334406E-02
3.524303E-02
2.707060E-02
2.270197E-02
1.847253E-02
9.448939E-03
1.117626E-02
1.641265E-01
1.773077E-01
1.493811E-01
1.564755E-01
1.333480E-01
1.162603E-01
1.286468E-01
1.402469E-01
1.511131E-01
1.611483E-01
1.492037E-01
1.350434E-01
1.136235E-01
9.289777E-02
1.370963E-01
1.057032E-01
1.250286E-01
1.130983E-01
1.159338E-01
1.179869E-01
1.147326E-01
1.197612E-01
1.192058E-01
1.195986E-01
1.116442E-01
1.202670E-01
1.035967E-01
9.570552E-02
8.787438E-02
8.370243E-02
9.013182E-02
7.895062E-02
7.361814E-02
6.770642E-02
6.021969E-02
5.244542E-02
6.486418E-02
4.755695E-02
3.305349E-02
4.440891E-02
3.610195E-02
2.771476E-02
2.345060E-02
1.890194E-02
9.663635E-03
1.183762E-02
1.876878E-01
1.732040E-01
1.668218E-01
1.572651E-01
1.450322E-01
1.402789E-01
1.223496E-01
1.347214E-01
1.463894E-01
1.572920E-01
1.672028E-01
1.546932E-01
1.230448E-01
1.016423E-01
1.164356E-01
1.421160E-01
1.276326E-01
1.296589E-01
1.173824E-01
1.200295E-01
1.219008E-01
1.350510E-01
1.382880E-01
1.229404E-01
1.231074E-01
1.147681E-01
1.082453E-01
1.066019E-01
9.849545E-02
9.045049E-02
8.605682E-02
8.042482E-02
8.108358E-02
7.552991E-02
6.940071E-02
6.168723E-02
5.371375E-02
5.924473E-02
4.319721E-02
3.606262E-02
4.547486E-02
3.696086E-02
2.835891E-02
2.518708E-02
1.933135E-02
9.878331E-03
1.307846E-02
1.769851E-01
1.978178E-01
1.819486E-01
1.549141E-01
1.650033E-01
1.324012E-01
1.470903E-01
1.283297E-01
1.407896E-01
1.525239E-01
1.634249E-01
1.731593E-01
1.600767E-01
1.102280E-01
1.269811E-01
1.402845E-01
1.470864E-01
1.499842E-01
1.342454E-01
1.216383E-01
1.241242E-01
1.258159E-01
1.558455E-01
1.255953E-01
1.266624E-01
1.264289E-01
1.179873E-01
9.635150E-02
1.096040E-01
1.012777E-01
9.302579E-02
8.841100E-02
7.193365E-02
8.321591E-02
7.744212E-02
7.106888E-02
6.315715E-02
5.498391E-02
5.332407E-02
4.872101E-02
3.957790E-02
4.654124E-02
3.781978E-02
2.900307E-02
2.763651E-02
1.976077E-02
1.009303E-02
1.461930E-02
1.646735E-01
1.865749E-01
2.074373E-01
1.905085E-01
1.416853E-01
1.725791E-01
1.187933E-01
1.537427E-01
1.343023E-01
1.468513E-01
1.586404E-01
1.692497E-01
1.789098E-01
1.653907E-01
1.372397E-01
1.526046E-01
1.645176E-01
1.519868E-01
1.727898E-01
1.387515E-01
1.258986E-01
1.282187E-01
1.297277E-01
1.420737E-01
1.121600E-01
1.302380E-01
1.298614E-01
1.211993E-01
8.526483E-02
1.125853E-01
1.039956E-01
9.560154E-02
9.076480E-02
6.385496E-02
8.534807E-02
7.933751E-02
7.273865E-02
6.462911E-02
5.625508E-02
6.136297E-02
5.451670E-02
4.363049E-02
4.759990E-02
3.867870E-02
2.964722E-02
3.058643E-02
2.019018E-02
1.030772E-02
1.561325E-02
1.738883E-01
1.508880E-01
1.960386E-01
2.168410E-01
1.988795E-01
1.273264E-01
1.799867E-01
1.473965E-01
1.603747E-01
1.402677E-01
1.529036E-01
1.644706E-01
1.750659E-01
1.845767E-01
1.706219E-01
1.645534E-01
1.785946E-01
1.891888E-01
1.568006E-01
1.581778E-01
1.432880E-01
1.301619E-01
1.323120E-01
1.335320E-01
1.273375E-01
9.889164E-02
1.338368E-01
1.332808E-01
1.243739E-01
7.482394E-02
1.154496E-01
1.067576E-01
9.817737E-02
9.311830E-02
7.548760E-02
8.746917E-02
8.123136E-02
7.441024E-02
6.610246E-02
5.751247E-02
6.964272E-02
6.066985E-02
4.817230E-02
4.866143E-02
3.953762E-02
3.029138E-02
3.067361E-02
2.061960E-02
1.052242E-02
1.563501E-02
1.830261E-01
1.596838E-01
1.358170E-01
2.053573E-01
2.260313E-01
2.070660E-01
1.573622E-01
1.872225E-01
1.761690E-01
1.669214E-01
1.462258E-01
1.587486E-01
1.703037E-01
1.808541E-01
1.901522E-01
1.757642E-01
1.922073E-01
2.050115E-01
1.738762E-01
1.615882E-01
1.422959E-01
1.477974E-01
1.344268E-01
1.363341E-01
1.373396E-01
1.122998E-01
8.613405E-02
1.374471E-01
1.366442E-01
1.273880E-01
9.030337E-02
1.183937E-01
1.095191E-01
1.007531E-01
9.546596E-02
8.743337E-02
8.958906E-02
8.312513E-02
7.608339E-02
6.755648E-02
5.877304E-02
7.821950E-02
6.721172E-02
4.645505E-02
4.972413E-02
4.039654E-02
3.093554E-02
3.007355E-02
2.104901E-02
1.073711E-02
1.492179E-02
1.920730E-01
1.684144E-01
1.440806E-01
1.670845E-01
2.145195E-01
2.350146E-01
2.149011E-01
1.874680E-01
1.943270E-01
2.052229E-01
1.733553E-01
1.520722E-01
1.645927E-01
1.761318E-01
1.865985E-01
1.956336E-01
1.807920E-01
2.202684E-01
1.891414E-01
1.569906E-01
1.663234E-01
1.256965E-01
1.522588E-01
1.386595E-01
1.403566E-01
1.411531E-01
9.749944E-02
1.042334E-01
1.410475E-01
1.398107E-01
1.305097E-01
1.061366E-01
1.213356E-01
1.122745E-01
1.033289E-01
9.781319E-02
9.972102E-02
9.170821E-02
8.501949E-02
7.773135E-02
6.901313E-02
6.003558E-02
8.712898E-02
6.325625E-02
4.448521E-02
5.078729E-02
4.125546E-02
3.157969E-02
2.865176E-02
2.147843E-02
1.095181E-02
1.365793E-02
1.770771E-01
2.010167E-01
1.522988E-01
1.765027E-01
1.984254E-01
2.230654E-01
2.434621E-01
2.225792E-01
2.178247E-01
2.012882E-01
2.346625E-01
1.796411E-01
1.579156E-01
1.704347E-01
1.819453E-01
1.920146E-01
2.008994E-01
1.857519E-01
2.035146E-01
1.713880E-01
1.390038E-01
1.709891E-01
1.089970E-01
1.566390E-01
1.428940E-01
1.443814E-01
1.449675E-01
1.180547E-01
1.226963E-01
1.445025E-01
1.431054E-01
1.336264E-01
1.223486E-01
1.242607E-01
1.149621E-01
1.059050E-01
1.001599E-01
1.123703E-01
9.382720E-02
8.689853E-02
7.938123E-02
7.047200E-02
6.129920E-02
8.076989E-02
5.939305E-02
4.193527E-02
5.184319E-02
4.211437E-02
3.222385E-02
2.639957E-02
2.190784E-02
1.116651E-02
1.283219E-02
1.856665E-01
1.604688E-01
2.093752E-01
1.858033E-01
2.090376E-01
2.300124E-01
2.315148E-01
2.517339E-01
2.300986E-01
2.485601E-01
2.081022E-01
2.175389E-01
1.859162E-01
1.637564E-01
1.762718E-01
1.874582E-01
1.974258E-01
2.060876E-01
1.906337E-01
1.849646E-01
1.521671E-01
1.205522E-01
1.755713E-01
1.319518E-01
1.610532E-01
1.471305E-01
1.484079E-01
1.486793E-01
1.390126E-01
1.415525E-01
1.479836E-01
1.463909E-01
1.367118E-01
1.389561E-01
1.270573E-01
1.176973E-01
1.084809E-01
1.025061E-01
1.012091E-01
9.593662E-02
8.877593E-02
8.103317E-02
7.193238E-02
6.255001E-02
7.474791E-02
5.526981E-02
3.857821E-02
5.290187E-02
4.297329E-02
3.286800E-02
2.649212E-02
2.233725E-02
1.138120E-02
1.317392E-02
1.938189E-01
1.685876E-01
1.949067E-01
2.176746E-01
2.192892E-01
2.418019E-01
2.619769E-01
2.398520E-01
2.598324E-01
2.374628E-01
2.311918E-01
2.147487E-01
1.983100E-01
1.921128E-01
1.695940E-01
1.818950E-01
1.929758E-01
2.028145E-01
2.111924E-01
1.954327E-01
1.647509E-01
1.321053E-01
1.457335E-01
1.801334E-01
1.552234E-01
1.654419E-01
1.513689E-01
1.523685E-01
1.523968E-01
1.603697E-01
1.608194E-01
1.514799E-01
1.496279E-01
1.396144E-01
1.235772E-01
1.299436E-01
1.204323E-01
1.110566E-01
1.048478E-01
9.169679E-02
9.804465E-02
9.065327E-02
8.268682E-02
7.337496E-02
6.380394E-02
6.876167E-02
5.053650E-02
4.029984E-02
5.396171E-02